ITEM: TIMESTEP
0
ITEM: NUMBER OF ATOMS
864
ITEM: BOX BOUNDS pp pp pp
0.0000000000000000e+00 1.0259855680060181e+01
0.0000000000000000e+00 1.0259855680060181e+01
0.0000000000000000e+00 1.0259855680060181e+01
ITEM: ATOMS id type mol x y z 
1 1 0 0.000000000000000 0.000000000000000 0.000000000000000 
2 1 0 0.854987973338348 0.854987973338348 0.000000000000000 
3 1 0 0.854987973338348 0.000000000000000 0.854987973338348 
4 1 0 0.000000000000000 0.854987973338348 0.854987973338348 
5 1 0 1.709975946676697 0.000000000000000 0.000000000000000 
6 1 0 2.564963920015045 0.854987973338348 0.000000000000000 
7 1 0 2.564963920015045 0.000000000000000 0.854987973338348 
8 1 0 1.709975946676697 0.854987973338348 0.854987973338348 
25 1 0 0.000000000000000 1.709975946676697 0.000000000000000 
26 1 0 0.854987973338348 2.564963920015045 0.000000000000000 
27 1 0 0.854987973338348 1.709975946676697 0.854987973338348 
28 1 0 0.000000000000000 2.564963920015045 0.854987973338348 
29 1 0 1.709975946676697 1.709975946676697 0.000000000000000 
30 1 0 2.564963920015045 2.564963920015045 0.000000000000000 
31 1 0 2.564963920015045 1.709975946676697 0.854987973338348 
32 1 0 1.709975946676697 2.564963920015045 0.854987973338348 
145 1 0 0.000000000000000 0.000000000000000 1.709975946676697 
146 1 0 0.854987973338348 0.854987973338348 1.709975946676697 
147 1 0 0.854987973338348 0.000000000000000 2.564963920015045 
148 1 0 0.000000000000000 0.854987973338348 2.564963920015045 
149 1 0 1.709975946676697 0.000000000000000 1.709975946676697 
150 1 0 2.564963920015045 0.854987973338348 1.709975946676697 
151 1 0 2.564963920015045 0.000000000000000 2.564963920015045 
152 1 0 1.709975946676697 0.854987973338348 2.564963920015045 
169 1 0 0.000000000000000 1.709975946676697 1.709975946676697 
170 1 0 0.854987973338348 2.564963920015045 1.709975946676697 
171 1 0 0.854987973338348 1.709975946676697 2.564963920015045 
172 1 0 0.000000000000000 2.564963920015045 2.564963920015045 
173 1 0 1.709975946676697 1.709975946676697 1.709975946676697 
174 1 0 2.564963920015045 2.564963920015045 1.709975946676697 
175 1 0 2.564963920015045 1.709975946676697 2.564963920015045 
176 1 0 1.709975946676697 2.564963920015045 2.564963920015045 
9 1 0 3.419951893353394 0.000000000000000 0.000000000000000 
10 1 0 4.274939866691742 0.854987973338348 0.000000000000000 
11 1 0 4.274939866691742 0.000000000000000 0.854987973338348 
12 1 0 3.419951893353394 0.854987973338348 0.854987973338348 
13 1 0 5.129927840030090 0.000000000000000 0.000000000000000 
14 1 0 5.984915813368439 0.854987973338348 0.000000000000000 
15 1 0 5.984915813368439 0.000000000000000 0.854987973338348 
16 1 0 5.129927840030090 0.854987973338348 0.854987973338348 
33 1 0 3.419951893353394 1.709975946676697 0.000000000000000 
34 1 0 4.274939866691742 2.564963920015045 0.000000000000000 
35 2 0 4.274939866691742 1.709975946676697 0.854987973338348 
36 2 0 3.419951893353394 2.564963920015045 0.854987973338348 
37 1 0 5.129927840030090 1.709975946676697 0.000000000000000 
38 1 0 5.984915813368439 2.564963920015045 0.000000000000000 
39 1 0 5.984915813368439 1.709975946676697 0.854987973338348 
40 1 0 5.129927840030090 2.564963920015045 0.854987973338348 
153 1 0 3.419951893353394 0.000000000000000 1.709975946676697 
154 1 0 4.274939866691742 0.854987973338348 1.709975946676697 
155 1 0 4.274939866691742 0.000000000000000 2.564963920015045 
156 1 0 3.419951893353394 0.854987973338348 2.564963920015045 
157 1 0 5.129927840030090 0.000000000000000 1.709975946676697 
158 1 0 5.984915813368439 0.854987973338348 1.709975946676697 
159 1 0 5.984915813368439 0.000000000000000 2.564963920015045 
160 1 0 5.129927840030090 0.854987973338348 2.564963920015045 
177 1 0 3.419951893353394 1.709975946676697 1.709975946676697 
178 1 0 4.274939866691742 2.564963920015045 1.709975946676697 
179 2 0 4.274939866691742 1.709975946676697 2.564963920015045 
180 1 0 3.419951893353394 2.564963920015045 2.564963920015045 
181 1 0 5.129927840030090 1.709975946676697 1.709975946676697 
182 1 0 5.984915813368439 2.564963920015045 1.709975946676697 
183 1 0 5.984915813368439 1.709975946676697 2.564963920015045 
184 2 0 5.129927840030090 2.564963920015045 2.564963920015045 
17 1 0 6.839903786706787 0.000000000000000 0.000000000000000 
18 1 0 7.694891760045135 0.854987973338348 0.000000000000000 
19 1 0 7.694891760045135 0.000000000000000 0.854987973338348 
20 1 0 6.839903786706787 0.854987973338348 0.854987973338348 
21 1 0 8.549879733383484 0.000000000000000 0.000000000000000 
22 1 0 9.404867706721832 0.854987973338348 0.000000000000000 
23 1 0 9.404867706721832 0.000000000000000 0.854987973338348 
24 1 0 8.549879733383484 0.854987973338348 0.854987973338348 
41 1 0 6.839903786706787 1.709975946676697 0.000000000000000 
42 1 0 7.694891760045135 2.564963920015045 0.000000000000000 
43 1 0 7.694891760045135 1.709975946676697 0.854987973338348 
44 1 0 6.839903786706787 2.564963920015045 0.854987973338348 
45 1 0 8.549879733383484 1.709975946676697 0.000000000000000 
46 1 0 9.404867706721832 2.564963920015045 0.000000000000000 
47 2 0 9.404867706721832 1.709975946676697 0.854987973338348 
48 2 0 8.549879733383484 2.564963920015045 0.854987973338348 
161 1 0 6.839903786706787 0.000000000000000 1.709975946676697 
162 2 0 7.694891760045135 0.854987973338348 1.709975946676697 
163 1 0 7.694891760045135 0.000000000000000 2.564963920015045 
164 1 0 6.839903786706787 0.854987973338348 2.564963920015045 
165 1 0 8.549879733383484 0.000000000000000 1.709975946676697 
166 1 0 9.404867706721832 0.854987973338348 1.709975946676697 
167 2 0 9.404867706721832 0.000000000000000 2.564963920015045 
168 1 0 8.549879733383484 0.854987973338348 2.564963920015045 
185 1 0 6.839903786706787 1.709975946676697 1.709975946676697 
186 1 0 7.694891760045135 2.564963920015045 1.709975946676697 
187 1 0 7.694891760045135 1.709975946676697 2.564963920015045 
188 1 0 6.839903786706787 2.564963920015045 2.564963920015045 
189 1 0 8.549879733383484 1.709975946676697 1.709975946676697 
190 1 0 9.404867706721832 2.564963920015045 1.709975946676697 
191 1 0 9.404867706721832 1.709975946676697 2.564963920015045 
192 1 0 8.549879733383484 2.564963920015045 2.564963920015045 
49 1 0 0.000000000000000 3.419951893353394 0.000000000000000 
50 1 0 0.854987973338348 4.274939866691742 0.000000000000000 
51 1 0 0.854987973338348 3.419951893353394 0.854987973338348 
52 1 0 0.000000000000000 4.274939866691742 0.854987973338348 
53 1 0 1.709975946676697 3.419951893353394 0.000000000000000 
54 2 0 2.564963920015045 4.274939866691742 0.000000000000000 
55 1 0 2.564963920015045 3.419951893353394 0.854987973338348 
56 1 0 1.709975946676697 4.274939866691742 0.854987973338348 
73 1 0 0.000000000000000 5.129927840030090 0.000000000000000 
74 1 0 0.854987973338348 5.984915813368439 0.000000000000000 
75 1 0 0.854987973338348 5.129927840030090 0.854987973338348 
76 1 0 0.000000000000000 5.984915813368439 0.854987973338348 
77 1 0 1.709975946676697 5.129927840030090 0.000000000000000 
78 1 0 2.564963920015045 5.984915813368439 0.000000000000000 
79 1 0 2.564963920015045 5.129927840030090 0.854987973338348 
80 1 0 1.709975946676697 5.984915813368439 0.854987973338348 
193 1 0 0.000000000000000 3.419951893353394 1.709975946676697 
194 1 0 0.854987973338348 4.274939866691742 1.709975946676697 
195 2 0 0.854987973338348 3.419951893353394 2.564963920015045 
196 1 0 0.000000000000000 4.274939866691742 2.564963920015045 
197 1 0 1.709975946676697 3.419951893353394 1.709975946676697 
198 1 0 2.564963920015045 4.274939866691742 1.709975946676697 
199 1 0 2.564963920015045 3.419951893353394 2.564963920015045 
200 1 0 1.709975946676697 4.274939866691742 2.564963920015045 
217 2 0 0.000000000000000 5.129927840030090 1.709975946676697 
218 1 0 0.854987973338348 5.984915813368439 1.709975946676697 
219 1 0 0.854987973338348 5.129927840030090 2.564963920015045 
220 1 0 0.000000000000000 5.984915813368439 2.564963920015045 
221 1 0 1.709975946676697 5.129927840030090 1.709975946676697 
222 2 0 2.564963920015045 5.984915813368439 1.709975946676697 
223 1 0 2.564963920015045 5.129927840030090 2.564963920015045 
224 1 0 1.709975946676697 5.984915813368439 2.564963920015045 
57 1 0 3.419951893353394 3.419951893353394 0.000000000000000 
58 1 0 4.274939866691742 4.274939866691742 0.000000000000000 
59 1 0 4.274939866691742 3.419951893353394 0.854987973338348 
60 1 0 3.419951893353394 4.274939866691742 0.854987973338348 
61 1 0 5.129927840030090 3.419951893353394 0.000000000000000 
62 1 0 5.984915813368439 4.274939866691742 0.000000000000000 
63 1 0 5.984915813368439 3.419951893353394 0.854987973338348 
64 1 0 5.129927840030090 4.274939866691742 0.854987973338348 
81 1 0 3.419951893353394 5.129927840030090 0.000000000000000 
82 1 0 4.274939866691742 5.984915813368439 0.000000000000000 
83 1 0 4.274939866691742 5.129927840030090 0.854987973338348 
84 1 0 3.419951893353394 5.984915813368439 0.854987973338348 
85 2 0 5.129927840030090 5.129927840030090 0.000000000000000 
86 1 0 5.984915813368439 5.984915813368439 0.000000000000000 
87 1 0 5.984915813368439 5.129927840030090 0.854987973338348 
88 1 0 5.129927840030090 5.984915813368439 0.854987973338348 
201 1 0 3.419951893353394 3.419951893353394 1.709975946676697 
202 1 0 4.274939866691742 4.274939866691742 1.709975946676697 
203 1 0 4.274939866691742 3.419951893353394 2.564963920015045 
204 1 0 3.419951893353394 4.274939866691742 2.564963920015045 
205 1 0 5.129927840030090 3.419951893353394 1.709975946676697 
206 1 0 5.984915813368439 4.274939866691742 1.709975946676697 
207 1 0 5.984915813368439 3.419951893353394 2.564963920015045 
208 1 0 5.129927840030090 4.274939866691742 2.564963920015045 
225 1 0 3.419951893353394 5.129927840030090 1.709975946676697 
226 1 0 4.274939866691742 5.984915813368439 1.709975946676697 
227 1 0 4.274939866691742 5.129927840030090 2.564963920015045 
228 1 0 3.419951893353394 5.984915813368439 2.564963920015045 
229 1 0 5.129927840030090 5.129927840030090 1.709975946676697 
230 1 0 5.984915813368439 5.984915813368439 1.709975946676697 
231 1 0 5.984915813368439 5.129927840030090 2.564963920015045 
232 1 0 5.129927840030090 5.984915813368439 2.564963920015045 
65 1 0 6.839903786706787 3.419951893353394 0.000000000000000 
66 1 0 7.694891760045135 4.274939866691742 0.000000000000000 
67 1 0 7.694891760045135 3.419951893353394 0.854987973338348 
68 1 0 6.839903786706787 4.274939866691742 0.854987973338348 
69 1 0 8.549879733383484 3.419951893353394 0.000000000000000 
70 1 0 9.404867706721832 4.274939866691742 0.000000000000000 
71 1 0 9.404867706721832 3.419951893353394 0.854987973338348 
72 1 0 8.549879733383484 4.274939866691742 0.854987973338348 
89 1 0 6.839903786706787 5.129927840030090 0.000000000000000 
90 1 0 7.694891760045135 5.984915813368439 0.000000000000000 
91 1 0 7.694891760045135 5.129927840030090 0.854987973338348 
92 1 0 6.839903786706787 5.984915813368439 0.854987973338348 
93 1 0 8.549879733383484 5.129927840030090 0.000000000000000 
94 1 0 9.404867706721832 5.984915813368439 0.000000000000000 
95 1 0 9.404867706721832 5.129927840030090 0.854987973338348 
96 1 0 8.549879733383484 5.984915813368439 0.854987973338348 
209 1 0 6.839903786706787 3.419951893353394 1.709975946676697 
210 1 0 7.694891760045135 4.274939866691742 1.709975946676697 
211 1 0 7.694891760045135 3.419951893353394 2.564963920015045 
212 1 0 6.839903786706787 4.274939866691742 2.564963920015045 
213 1 0 8.549879733383484 3.419951893353394 1.709975946676697 
214 1 0 9.404867706721832 4.274939866691742 1.709975946676697 
215 1 0 9.404867706721832 3.419951893353394 2.564963920015045 
216 1 0 8.549879733383484 4.274939866691742 2.564963920015045 
233 1 0 6.839903786706787 5.129927840030090 1.709975946676697 
234 1 0 7.694891760045135 5.984915813368439 1.709975946676697 
235 1 0 7.694891760045135 5.129927840030090 2.564963920015045 
236 2 0 6.839903786706787 5.984915813368439 2.564963920015045 
237 1 0 8.549879733383484 5.129927840030090 1.709975946676697 
238 1 0 9.404867706721832 5.984915813368439 1.709975946676697 
239 1 0 9.404867706721832 5.129927840030090 2.564963920015045 
240 1 0 8.549879733383484 5.984915813368439 2.564963920015045 
97 1 0 0.000000000000000 6.839903786706787 0.000000000000000 
98 1 0 0.854987973338348 7.694891760045135 0.000000000000000 
99 2 0 0.854987973338348 6.839903786706787 0.854987973338348 
100 1 0 0.000000000000000 7.694891760045135 0.854987973338348 
101 2 0 1.709975946676697 6.839903786706787 0.000000000000000 
102 1 0 2.564963920015045 7.694891760045135 0.000000000000000 
103 1 0 2.564963920015045 6.839903786706787 0.854987973338348 
104 1 0 1.709975946676697 7.694891760045135 0.854987973338348 
121 1 0 0.000000000000000 8.549879733383484 0.000000000000000 
122 1 0 0.854987973338348 9.404867706721832 0.000000000000000 
123 1 0 0.854987973338348 8.549879733383484 0.854987973338348 
124 1 0 0.000000000000000 9.404867706721832 0.854987973338348 
125 1 0 1.709975946676697 8.549879733383484 0.000000000000000 
126 1 0 2.564963920015045 9.404867706721832 0.000000000000000 
127 1 0 2.564963920015045 8.549879733383484 0.854987973338348 
128 1 0 1.709975946676697 9.404867706721832 0.854987973338348 
241 1 0 0.000000000000000 6.839903786706787 1.709975946676697 
242 1 0 0.854987973338348 7.694891760045135 1.709975946676697 
243 1 0 0.854987973338348 6.839903786706787 2.564963920015045 
244 1 0 0.000000000000000 7.694891760045135 2.564963920015045 
245 1 0 1.709975946676697 6.839903786706787 1.709975946676697 
246 1 0 2.564963920015045 7.694891760045135 1.709975946676697 
247 1 0 2.564963920015045 6.839903786706787 2.564963920015045 
248 1 0 1.709975946676697 7.694891760045135 2.564963920015045 
265 1 0 0.000000000000000 8.549879733383484 1.709975946676697 
266 1 0 0.854987973338348 9.404867706721832 1.709975946676697 
267 1 0 0.854987973338348 8.549879733383484 2.564963920015045 
268 1 0 0.000000000000000 9.404867706721832 2.564963920015045 
269 1 0 1.709975946676697 8.549879733383484 1.709975946676697 
270 1 0 2.564963920015045 9.404867706721832 1.709975946676697 
271 1 0 2.564963920015045 8.549879733383484 2.564963920015045 
272 1 0 1.709975946676697 9.404867706721832 2.564963920015045 
105 1 0 3.419951893353394 6.839903786706787 0.000000000000000 
106 1 0 4.274939866691742 7.694891760045135 0.000000000000000 
107 1 0 4.274939866691742 6.839903786706787 0.854987973338348 
108 1 0 3.419951893353394 7.694891760045135 0.854987973338348 
109 1 0 5.129927840030090 6.839903786706787 0.000000000000000 
110 2 0 5.984915813368439 7.694891760045135 0.000000000000000 
111 1 0 5.984915813368439 6.839903786706787 0.854987973338348 
112 1 0 5.129927840030090 7.694891760045135 0.854987973338348 
129 1 0 3.419951893353394 8.549879733383484 0.000000000000000 
130 1 0 4.274939866691742 9.404867706721832 0.000000000000000 
131 1 0 4.274939866691742 8.549879733383484 0.854987973338348 
132 1 0 3.419951893353394 9.404867706721832 0.854987973338348 
133 1 0 5.129927840030090 8.549879733383484 0.000000000000000 
134 1 0 5.984915813368439 9.404867706721832 0.000000000000000 
135 1 0 5.984915813368439 8.549879733383484 0.854987973338348 
136 1 0 5.129927840030090 9.404867706721832 0.854987973338348 
249 1 0 3.419951893353394 6.839903786706787 1.709975946676697 
250 1 0 4.274939866691742 7.694891760045135 1.709975946676697 
251 2 0 4.274939866691742 6.839903786706787 2.564963920015045 
252 1 0 3.419951893353394 7.694891760045135 2.564963920015045 
253 1 0 5.129927840030090 6.839903786706787 1.709975946676697 
254 1 0 5.984915813368439 7.694891760045135 1.709975946676697 
255 1 0 5.984915813368439 6.839903786706787 2.564963920015045 
256 1 0 5.129927840030090 7.694891760045135 2.564963920015045 
273 1 0 3.419951893353394 8.549879733383484 1.709975946676697 
274 1 0 4.274939866691742 9.404867706721832 1.709975946676697 
275 1 0 4.274939866691742 8.549879733383484 2.564963920015045 
276 1 0 3.419951893353394 9.404867706721832 2.564963920015045 
277 1 0 5.129927840030090 8.549879733383484 1.709975946676697 
278 1 0 5.984915813368439 9.404867706721832 1.709975946676697 
279 1 0 5.984915813368439 8.549879733383484 2.564963920015045 
280 1 0 5.129927840030090 9.404867706721832 2.564963920015045 
113 1 0 6.839903786706787 6.839903786706787 0.000000000000000 
114 1 0 7.694891760045135 7.694891760045135 0.000000000000000 
115 1 0 7.694891760045135 6.839903786706787 0.854987973338348 
116 2 0 6.839903786706787 7.694891760045135 0.854987973338348 
117 1 0 8.549879733383484 6.839903786706787 0.000000000000000 
118 1 0 9.404867706721832 7.694891760045135 0.000000000000000 
119 1 0 9.404867706721832 6.839903786706787 0.854987973338348 
120 1 0 8.549879733383484 7.694891760045135 0.854987973338348 
137 1 0 6.839903786706787 8.549879733383484 0.000000000000000 
138 1 0 7.694891760045135 9.404867706721832 0.000000000000000 
139 1 0 7.694891760045135 8.549879733383484 0.854987973338348 
140 2 0 6.839903786706787 9.404867706721832 0.854987973338348 
141 1 0 8.549879733383484 8.549879733383484 0.000000000000000 
142 1 0 9.404867706721832 9.404867706721832 0.000000000000000 
143 1 0 9.404867706721832 8.549879733383484 0.854987973338348 
144 1 0 8.549879733383484 9.404867706721832 0.854987973338348 
257 1 0 6.839903786706787 6.839903786706787 1.709975946676697 
258 1 0 7.694891760045135 7.694891760045135 1.709975946676697 
259 1 0 7.694891760045135 6.839903786706787 2.564963920015045 
260 1 0 6.839903786706787 7.694891760045135 2.564963920015045 
261 1 0 8.549879733383484 6.839903786706787 1.709975946676697 
262 1 0 9.404867706721832 7.694891760045135 1.709975946676697 
263 1 0 9.404867706721832 6.839903786706787 2.564963920015045 
264 1 0 8.549879733383484 7.694891760045135 2.564963920015045 
281 1 0 6.839903786706787 8.549879733383484 1.709975946676697 
282 1 0 7.694891760045135 9.404867706721832 1.709975946676697 
283 1 0 7.694891760045135 8.549879733383484 2.564963920015045 
284 1 0 6.839903786706787 9.404867706721832 2.564963920015045 
285 1 0 8.549879733383484 8.549879733383484 1.709975946676697 
286 2 0 9.404867706721832 9.404867706721832 1.709975946676697 
287 1 0 9.404867706721832 8.549879733383484 2.564963920015045 
288 1 0 8.549879733383484 9.404867706721832 2.564963920015045 
289 1 0 0.000000000000000 0.000000000000000 3.419951893353394 
290 1 0 0.854987973338348 0.854987973338348 3.419951893353394 
291 1 0 0.854987973338348 0.000000000000000 4.274939866691742 
292 1 0 0.000000000000000 0.854987973338348 4.274939866691742 
293 1 0 1.709975946676697 0.000000000000000 3.419951893353394 
294 2 0 2.564963920015045 0.854987973338348 3.419951893353394 
295 1 0 2.564963920015045 0.000000000000000 4.274939866691742 
296 1 0 1.709975946676697 0.854987973338348 4.274939866691742 
313 1 0 0.000000000000000 1.709975946676697 3.419951893353394 
314 2 0 0.854987973338348 2.564963920015045 3.419951893353394 
315 1 0 0.854987973338348 1.709975946676697 4.274939866691742 
316 2 0 0.000000000000000 2.564963920015045 4.274939866691742 
317 1 0 1.709975946676697 1.709975946676697 3.419951893353394 
318 1 0 2.564963920015045 2.564963920015045 3.419951893353394 
319 1 0 2.564963920015045 1.709975946676697 4.274939866691742 
320 1 0 1.709975946676697 2.564963920015045 4.274939866691742 
433 1 0 0.000000000000000 0.000000000000000 5.129927840030090 
434 1 0 0.854987973338348 0.854987973338348 5.129927840030090 
435 1 0 0.854987973338348 0.000000000000000 5.984915813368439 
436 1 0 0.000000000000000 0.854987973338348 5.984915813368439 
437 2 0 1.709975946676697 0.000000000000000 5.129927840030090 
438 1 0 2.564963920015045 0.854987973338348 5.129927840030090 
439 1 0 2.564963920015045 0.000000000000000 5.984915813368439 
440 1 0 1.709975946676697 0.854987973338348 5.984915813368439 
457 1 0 0.000000000000000 1.709975946676697 5.129927840030090 
458 1 0 0.854987973338348 2.564963920015045 5.129927840030090 
459 1 0 0.854987973338348 1.709975946676697 5.984915813368439 
460 1 0 0.000000000000000 2.564963920015045 5.984915813368439 
461 1 0 1.709975946676697 1.709975946676697 5.129927840030090 
462 1 0 2.564963920015045 2.564963920015045 5.129927840030090 
463 2 0 2.564963920015045 1.709975946676697 5.984915813368439 
464 1 0 1.709975946676697 2.564963920015045 5.984915813368439 
297 1 0 3.419951893353394 0.000000000000000 3.419951893353394 
298 1 0 4.274939866691742 0.854987973338348 3.419951893353394 
299 1 0 4.274939866691742 0.000000000000000 4.274939866691742 
300 1 0 3.419951893353394 0.854987973338348 4.274939866691742 
301 1 0 5.129927840030090 0.000000000000000 3.419951893353394 
302 1 0 5.984915813368439 0.854987973338348 3.419951893353394 
303 1 0 5.984915813368439 0.000000000000000 4.274939866691742 
304 1 0 5.129927840030090 0.854987973338348 4.274939866691742 
321 1 0 3.419951893353394 1.709975946676697 3.419951893353394 
322 2 0 4.274939866691742 2.564963920015045 3.419951893353394 
323 1 0 4.274939866691742 1.709975946676697 4.274939866691742 
324 1 0 3.419951893353394 2.564963920015045 4.274939866691742 
325 1 0 5.129927840030090 1.709975946676697 3.419951893353394 
326 1 0 5.984915813368439 2.564963920015045 3.419951893353394 
327 1 0 5.984915813368439 1.709975946676697 4.274939866691742 
328 1 0 5.129927840030090 2.564963920015045 4.274939866691742 
441 2 0 3.419951893353394 0.000000000000000 5.129927840030090 
442 1 0 4.274939866691742 0.854987973338348 5.129927840030090 
443 1 0 4.274939866691742 0.000000000000000 5.984915813368439 
444 1 0 3.419951893353394 0.854987973338348 5.984915813368439 
445 1 0 5.129927840030090 0.000000000000000 5.129927840030090 
446 1 0 5.984915813368439 0.854987973338348 5.129927840030090 
447 1 0 5.984915813368439 0.000000000000000 5.984915813368439 
448 1 0 5.129927840030090 0.854987973338348 5.984915813368439 
465 1 0 3.419951893353394 1.709975946676697 5.129927840030090 
466 1 0 4.274939866691742 2.564963920015045 5.129927840030090 
467 1 0 4.274939866691742 1.709975946676697 5.984915813368439 
468 1 0 3.419951893353394 2.564963920015045 5.984915813368439 
469 2 0 5.129927840030090 1.709975946676697 5.129927840030090 
470 1 0 5.984915813368439 2.564963920015045 5.129927840030090 
471 1 0 5.984915813368439 1.709975946676697 5.984915813368439 
472 1 0 5.129927840030090 2.564963920015045 5.984915813368439 
305 1 0 6.839903786706787 0.000000000000000 3.419951893353394 
306 1 0 7.694891760045135 0.854987973338348 3.419951893353394 
307 1 0 7.694891760045135 0.000000000000000 4.274939866691742 
308 1 0 6.839903786706787 0.854987973338348 4.274939866691742 
309 1 0 8.549879733383484 0.000000000000000 3.419951893353394 
310 1 0 9.404867706721832 0.854987973338348 3.419951893353394 
311 2 0 9.404867706721832 0.000000000000000 4.274939866691742 
312 2 0 8.549879733383484 0.854987973338348 4.274939866691742 
329 1 0 6.839903786706787 1.709975946676697 3.419951893353394 
330 1 0 7.694891760045135 2.564963920015045 3.419951893353394 
331 1 0 7.694891760045135 1.709975946676697 4.274939866691742 
332 1 0 6.839903786706787 2.564963920015045 4.274939866691742 
333 1 0 8.549879733383484 1.709975946676697 3.419951893353394 
334 2 0 9.404867706721832 2.564963920015045 3.419951893353394 
335 1 0 9.404867706721832 1.709975946676697 4.274939866691742 
336 1 0 8.549879733383484 2.564963920015045 4.274939866691742 
449 1 0 6.839903786706787 0.000000000000000 5.129927840030090 
450 1 0 7.694891760045135 0.854987973338348 5.129927840030090 
451 1 0 7.694891760045135 0.000000000000000 5.984915813368439 
452 1 0 6.839903786706787 0.854987973338348 5.984915813368439 
453 1 0 8.549879733383484 0.000000000000000 5.129927840030090 
454 1 0 9.404867706721832 0.854987973338348 5.129927840030090 
455 1 0 9.404867706721832 0.000000000000000 5.984915813368439 
456 1 0 8.549879733383484 0.854987973338348 5.984915813368439 
473 1 0 6.839903786706787 1.709975946676697 5.129927840030090 
474 1 0 7.694891760045135 2.564963920015045 5.129927840030090 
475 1 0 7.694891760045135 1.709975946676697 5.984915813368439 
476 1 0 6.839903786706787 2.564963920015045 5.984915813368439 
477 2 0 8.549879733383484 1.709975946676697 5.129927840030090 
478 1 0 9.404867706721832 2.564963920015045 5.129927840030090 
479 1 0 9.404867706721832 1.709975946676697 5.984915813368439 
480 1 0 8.549879733383484 2.564963920015045 5.984915813368439 
337 2 0 0.000000000000000 3.419951893353394 3.419951893353394 
338 1 0 0.854987973338348 4.274939866691742 3.419951893353394 
339 2 0 0.854987973338348 3.419951893353394 4.274939866691742 
340 1 0 0.000000000000000 4.274939866691742 4.274939866691742 
341 1 0 1.709975946676697 3.419951893353394 3.419951893353394 
342 1 0 2.564963920015045 4.274939866691742 3.419951893353394 
343 1 0 2.564963920015045 3.419951893353394 4.274939866691742 
344 1 0 1.709975946676697 4.274939866691742 4.274939866691742 
361 1 0 0.000000000000000 5.129927840030090 3.419951893353394 
362 1 0 0.854987973338348 5.984915813368439 3.419951893353394 
363 1 0 0.854987973338348 5.129927840030090 4.274939866691742 
364 1 0 0.000000000000000 5.984915813368439 4.274939866691742 
365 1 0 1.709975946676697 5.129927840030090 3.419951893353394 
366 1 0 2.564963920015045 5.984915813368439 3.419951893353394 
367 1 0 2.564963920015045 5.129927840030090 4.274939866691742 
368 1 0 1.709975946676697 5.984915813368439 4.274939866691742 
481 1 0 0.000000000000000 3.419951893353394 5.129927840030090 
482 1 0 0.854987973338348 4.274939866691742 5.129927840030090 
483 1 0 0.854987973338348 3.419951893353394 5.984915813368439 
484 1 0 0.000000000000000 4.274939866691742 5.984915813368439 
485 1 0 1.709975946676697 3.419951893353394 5.129927840030090 
486 1 0 2.564963920015045 4.274939866691742 5.129927840030090 
487 2 0 2.564963920015045 3.419951893353394 5.984915813368439 
488 1 0 1.709975946676697 4.274939866691742 5.984915813368439 
505 1 0 0.000000000000000 5.129927840030090 5.129927840030090 
506 1 0 0.854987973338348 5.984915813368439 5.129927840030090 
507 1 0 0.854987973338348 5.129927840030090 5.984915813368439 
508 1 0 0.000000000000000 5.984915813368439 5.984915813368439 
509 1 0 1.709975946676697 5.129927840030090 5.129927840030090 
510 1 0 2.564963920015045 5.984915813368439 5.129927840030090 
511 1 0 2.564963920015045 5.129927840030090 5.984915813368439 
512 1 0 1.709975946676697 5.984915813368439 5.984915813368439 
345 1 0 3.419951893353394 3.419951893353394 3.419951893353394 
346 1 0 4.274939866691742 4.274939866691742 3.419951893353394 
347 1 0 4.274939866691742 3.419951893353394 4.274939866691742 
348 1 0 3.419951893353394 4.274939866691742 4.274939866691742 
349 1 0 5.129927840030090 3.419951893353394 3.419951893353394 
350 2 0 5.984915813368439 4.274939866691742 3.419951893353394 
351 2 0 5.984915813368439 3.419951893353394 4.274939866691742 
352 1 0 5.129927840030090 4.274939866691742 4.274939866691742 
369 1 0 3.419951893353394 5.129927840030090 3.419951893353394 
370 1 0 4.274939866691742 5.984915813368439 3.419951893353394 
371 1 0 4.274939866691742 5.129927840030090 4.274939866691742 
372 1 0 3.419951893353394 5.984915813368439 4.274939866691742 
373 1 0 5.129927840030090 5.129927840030090 3.419951893353394 
374 1 0 5.984915813368439 5.984915813368439 3.419951893353394 
375 1 0 5.984915813368439 5.129927840030090 4.274939866691742 
376 1 0 5.129927840030090 5.984915813368439 4.274939866691742 
489 1 0 3.419951893353394 3.419951893353394 5.129927840030090 
490 1 0 4.274939866691742 4.274939866691742 5.129927840030090 
491 1 0 4.274939866691742 3.419951893353394 5.984915813368439 
492 1 0 3.419951893353394 4.274939866691742 5.984915813368439 
493 1 0 5.129927840030090 3.419951893353394 5.129927840030090 
494 1 0 5.984915813368439 4.274939866691742 5.129927840030090 
495 1 0 5.984915813368439 3.419951893353394 5.984915813368439 
496 1 0 5.129927840030090 4.274939866691742 5.984915813368439 
513 1 0 3.419951893353394 5.129927840030090 5.129927840030090 
514 1 0 4.274939866691742 5.984915813368439 5.129927840030090 
515 1 0 4.274939866691742 5.129927840030090 5.984915813368439 
516 1 0 3.419951893353394 5.984915813368439 5.984915813368439 
517 2 0 5.129927840030090 5.129927840030090 5.129927840030090 
518 1 0 5.984915813368439 5.984915813368439 5.129927840030090 
519 1 0 5.984915813368439 5.129927840030090 5.984915813368439 
520 1 0 5.129927840030090 5.984915813368439 5.984915813368439 
353 1 0 6.839903786706787 3.419951893353394 3.419951893353394 
354 1 0 7.694891760045135 4.274939866691742 3.419951893353394 
355 1 0 7.694891760045135 3.419951893353394 4.274939866691742 
356 1 0 6.839903786706787 4.274939866691742 4.274939866691742 
357 2 0 8.549879733383484 3.419951893353394 3.419951893353394 
358 1 0 9.404867706721832 4.274939866691742 3.419951893353394 
359 1 0 9.404867706721832 3.419951893353394 4.274939866691742 
360 1 0 8.549879733383484 4.274939866691742 4.274939866691742 
377 1 0 6.839903786706787 5.129927840030090 3.419951893353394 
378 2 0 7.694891760045135 5.984915813368439 3.419951893353394 
379 1 0 7.694891760045135 5.129927840030090 4.274939866691742 
380 1 0 6.839903786706787 5.984915813368439 4.274939866691742 
381 1 0 8.549879733383484 5.129927840030090 3.419951893353394 
382 1 0 9.404867706721832 5.984915813368439 3.419951893353394 
383 1 0 9.404867706721832 5.129927840030090 4.274939866691742 
384 1 0 8.549879733383484 5.984915813368439 4.274939866691742 
497 1 0 6.839903786706787 3.419951893353394 5.129927840030090 
498 1 0 7.694891760045135 4.274939866691742 5.129927840030090 
499 1 0 7.694891760045135 3.419951893353394 5.984915813368439 
500 1 0 6.839903786706787 4.274939866691742 5.984915813368439 
501 1 0 8.549879733383484 3.419951893353394 5.129927840030090 
502 1 0 9.404867706721832 4.274939866691742 5.129927840030090 
503 1 0 9.404867706721832 3.419951893353394 5.984915813368439 
504 1 0 8.549879733383484 4.274939866691742 5.984915813368439 
521 1 0 6.839903786706787 5.129927840030090 5.129927840030090 
522 1 0 7.694891760045135 5.984915813368439 5.129927840030090 