ITEM: TIMESTEP
0
ITEM: NUMBER OF ATOMS
864
ITEM: BOX BOUNDS pp pp pp
0.0000000000000000e+00 3.0779579999999999e+01
0.0000000000000000e+00 3.0779579999999999e+01
0.0000000000000000e+00 3.0779579999999999e+01
ITEM: ATOMS id type mol x y z 
1 1 0 0.000000000000000 0.000000000000000 0.000000000000000 
2 1 0 2.564965000000000 2.564965000000000 0.000000000000000 
3 1 0 2.564965000000000 0.000000000000000 2.564965000000000 
4 1 0 0.000000000000000 2.564965000000000 2.564965000000000 
5 1 0 5.129930000000000 0.000000000000000 0.000000000000000 
8 1 0 5.129930000000000 2.564965000000000 2.564965000000000 
25 1 0 0.000000000000000 5.129930000000000 0.000000000000000 
27 1 0 2.564965000000000 5.129930000000000 2.564965000000000 
29 1 0 5.129930000000000 5.129930000000000 0.000000000000000 
145 1 0 0.000000000000000 0.000000000000000 5.129930000000000 
146 1 0 2.564965000000000 2.564965000000000 5.129930000000000 
149 1 0 5.129930000000000 0.000000000000000 5.129930000000000 
169 1 0 0.000000000000000 5.129930000000000 5.129930000000000 
173 1 0 5.129930000000000 5.129930000000000 5.129930000000000 
6 1 0 7.694895000000000 2.564965000000000 0.000000000000000 
7 1 0 7.694895000000000 0.000000000000000 2.564965000000000 
9 1 0 10.259860000000000 0.000000000000000 0.000000000000000 
10 1 0 12.824825000000001 2.564965000000000 0.000000000000000 
11 1 0 12.824825000000001 0.000000000000000 2.564965000000000 
12 1 0 10.259860000000000 2.564965000000000 2.564965000000000 
31 1 0 7.694895000000000 5.129930000000000 2.564965000000000 
33 1 0 10.259860000000000 5.129930000000000 0.000000000000000 
35 2 0 12.824825000000001 5.129930000000000 2.564965000000000 
150 1 0 7.694895000000000 2.564965000000000 5.129930000000000 
153 1 0 10.259860000000000 0.000000000000000 5.129930000000000 
154 1 0 12.824825000000001 2.564965000000000 5.129930000000000 
177 1 0 10.259860000000000 5.129930000000000 5.129930000000000 
13 1 0 15.389790000000000 0.000000000000000 0.000000000000000 
14 1 0 17.954754999999999 2.564965000000000 0.000000000000000 
15 1 0 17.954754999999999 0.000000000000000 2.564965000000000 
16 1 0 15.389790000000000 2.564965000000000 2.564965000000000 
17 1 0 20.519720000000000 0.000000000000000 0.000000000000000 
20 1 0 20.519720000000000 2.564965000000000 2.564965000000000 
37 1 0 15.389790000000000 5.129930000000000 0.000000000000000 
39 1 0 17.954754999999999 5.129930000000000 2.564965000000000 
41 1 0 20.519720000000000 5.129930000000000 0.000000000000000 
157 1 0 15.389790000000000 0.000000000000000 5.129930000000000 
158 1 0 17.954754999999999 2.564965000000000 5.129930000000000 
161 1 0 20.519720000000000 0.000000000000000 5.129930000000000 
181 1 0 15.389790000000000 5.129930000000000 5.129930000000000 
185 1 0 20.519720000000000 5.129930000000000 5.129930000000000 
18 1 0 23.084685000000000 2.564965000000000 0.000000000000000 
19 1 0 23.084685000000000 0.000000000000000 2.564965000000000 
21 1 0 25.649650000000001 0.000000000000000 0.000000000000000 
22 1 0 28.214614999999998 2.564965000000000 0.000000000000000 
23 1 0 28.214614999999998 0.000000000000000 2.564965000000000 
24 1 0 25.649650000000001 2.564965000000000 2.564965000000000 
43 1 0 23.084685000000000 5.129930000000000 2.564965000000000 
45 1 0 25.649650000000001 5.129930000000000 0.000000000000000 
47 2 0 28.214614999999998 5.129930000000000 2.564965000000000 
162 2 0 23.084685000000000 2.564965000000000 5.129930000000000 
165 1 0 25.649650000000001 0.000000000000000 5.129930000000000 
166 1 0 28.214614999999998 2.564965000000000 5.129930000000000 
189 1 0 25.649650000000001 5.129930000000000 5.129930000000000 
26 1 0 2.564965000000000 7.694895000000000 0.000000000000000 
28 1 0 0.000000000000000 7.694895000000000 2.564965000000000 
32 1 0 5.129930000000000 7.694895000000000 2.564965000000000 
49 1 0 0.000000000000000 10.259860000000000 0.000000000000000 
50 1 0 2.564965000000000 12.824825000000001 0.000000000000000 
51 1 0 2.564965000000000 10.259860000000000 2.564965000000000 
52 1 0 0.000000000000000 12.824825000000001 2.564965000000000 
53 1 0 5.129930000000000 10.259860000000000 0.000000000000000 
56 1 0 5.129930000000000 12.824825000000001 2.564965000000000 
170 1 0 2.564965000000000 7.694895000000000 5.129930000000000 
193 1 0 0.000000000000000 10.259860000000000 5.129930000000000 
194 1 0 2.564965000000000 12.824825000000001 5.129930000000000 
197 1 0 5.129930000000000 10.259860000000000 5.129930000000000 
30 1 0 7.694895000000000 7.694895000000000 0.000000000000000 
34 1 0 12.824825000000001 7.694895000000000 0.000000000000000 
36 2 0 10.259860000000000 7.694895000000000 2.564965000000000 
54 2 0 7.694895000000000 12.824825000000001 0.000000000000000 
55 1 0 7.694895000000000 10.259860000000000 2.564965000000000 
57 1 0 10.259860000000000 10.259860000000000 0.000000000000000 
58 1 0 12.824825000000001 12.824825000000001 0.000000000000000 
59 1 0 12.824825000000001 10.259860000000000 2.564965000000000 
60 1 0 10.259860000000000 12.824825000000001 2.564965000000000 
174 1 0 7.694895000000000 7.694895000000000 5.129930000000000 
178 1 0 12.824825000000001 7.694895000000000 5.129930000000000 
198 1 0 7.694895000000000 12.824825000000001 5.129930000000000 
201 1 0 10.259860000000000 10.259860000000000 5.129930000000000 
202 1 0 12.824825000000001 12.824825000000001 5.129930000000000 
38 1 0 17.954754999999999 7.694895000000000 0.000000000000000 
40 1 0 15.389790000000000 7.694895000000000 2.564965000000000 
44 1 0 20.519720000000000 7.694895000000000 2.564965000000000 
61 1 0 15.389790000000000 10.259860000000000 0.000000000000000 
62 1 0 17.954754999999999 12.824825000000001 0.000000000000000 
63 1 0 17.954754999999999 10.259860000000000 2.564965000000000 
64 1 0 15.389790000000000 12.824825000000001 2.564965000000000 
65 1 0 20.519720000000000 10.259860000000000 0.000000000000000 
68 1 0 20.519720000000000 12.824825000000001 2.564965000000000 
182 1 0 17.954754999999999 7.694895000000000 5.129930000000000 
205 1 0 15.389790000000000 10.259860000000000 5.129930000000000 
206 1 0 17.954754999999999 12.824825000000001 5.129930000000000 
209 1 0 20.519720000000000 10.259860000000000 5.129930000000000 
42 1 0 23.084685000000000 7.694895000000000 0.000000000000000 
46 1 0 28.214614999999998 7.694895000000000 0.000000000000000 
48 2 0 25.649650000000001 7.694895000000000 2.564965000000000 
66 1 0 23.084685000000000 12.824825000000001 0.000000000000000 
67 1 0 23.084685000000000 10.259860000000000 2.564965000000000 
69 1 0 25.649650000000001 10.259860000000000 0.000000000000000 
70 1 0 28.214614999999998 12.824825000000001 0.000000000000000 
71 1 0 28.214614999999998 10.259860000000000 2.564965000000000 
72 1 0 25.649650000000001 12.824825000000001 2.564965000000000 
186 1 0 23.084685000000000 7.694895000000000 5.129930000000000 
190 1 0 28.214614999999998 7.694895000000000 5.129930000000000 
210 1 0 23.084685000000000 12.824825000000001 5.129930000000000 
213 1 0 25.649650000000001 10.259860000000000 5.129930000000000 
214 1 0 28.214614999999998 12.824825000000001 5.129930000000000 
73 1 0 0.000000000000000 15.389790000000000 0.000000000000000 
74 1 0 2.564965000000000 17.954754999999999 0.000000000000000 
75 1 0 2.564965000000000 15.389790000000000 2.564965000000000 
76 1 0 0.000000000000000 17.954754999999999 2.564965000000000 
77 1 0 5.129930000000000 15.389790000000000 0.000000000000000 
80 1 0 5.129930000000000 17.954754999999999 2.564965000000000 
97 1 0 0.000000000000000 20.519720000000000 0.000000000000000 
99 2 0 2.564965000000000 20.519720000000000 2.564965000000000 
101 2 0 5.129930000000000 20.519720000000000 0.000000000000000 
217 2 0 0.000000000000000 15.389790000000000 5.129930000000000 
218 1 0 2.564965000000000 17.954754999999999 5.129930000000000 
221 1 0 5.129930000000000 15.389790000000000 5.129930000000000 
241 1 0 0.000000000000000 20.519720000000000 5.129930000000000 
245 1 0 5.129930000000000 20.519720000000000 5.129930000000000 
78 1 0 7.694895000000000 17.954754999999999 0.000000000000000 
79 1 0 7.694895000000000 15.389790000000000 2.564965000000000 
81 1 0 10.259860000000000 15.389790000000000 0.000000000000000 
82 1 0 12.824825000000001 17.954754999999999 0.000000000000000 
83 1 0 12.824825000000001 15.389790000000000 2.564965000000000 
84 1 0 10.259860000000000 17.954754999999999 2.564965000000000 
103 1 0 7.694895000000000 20.519720000000000 2.564965000000000 
105 1 0 10.259860000000000 20.519720000000000 0.000000000000000 
107 1 0 12.824825000000001 20.519720000000000 2.564965000000000 
222 2 0 7.694895000000000 17.954754999999999 5.129930000000000 
225 1 0 10.259860000000000 15.389790000000000 5.129930000000000 
226 1 0 12.824825000000001 17.954754999999999 5.129930000000000 
249 1 0 10.259860000000000 20.519720000000000 5.129930000000000 
85 2 0 15.389790000000000 15.389790000000000 0.000000000000000 
86 1 0 17.954754999999999 17.954754999999999 0.000000000000000 
87 1 0 17.954754999999999 15.389790000000000 2.564965000000000 
88 1 0 15.389790000000000 17.954754999999999 2.564965000000000 
89 1 0 20.519720000000000 15.389790000000000 0.000000000000000 
92 1 0 20.519720000000000 17.954754999999999 2.564965000000000 
109 1 0 15.389790000000000 20.519720000000000 0.000000000000000 
111 1 0 17.954754999999999 20.519720000000000 2.564965000000000 
113 1 0 20.519720000000000 20.519720000000000 0.000000000000000 
229 1 0 15.389790000000000 15.389790000000000 5.129930000000000 
230 1 0 17.954754999999999 17.954754999999999 5.129930000000000 
233 1 0 20.519720000000000 15.389790000000000 5.129930000000000 
253 1 0 15.389790000000000 20.519720000000000 5.129930000000000 
257 1 0 20.519720000000000 20.519720000000000 5.129930000000000 
90 1 0 23.084685000000000 17.954754999999999 0.000000000000000 
91 1 0 23.084685000000000 15.389790000000000 2.564965000000000 
93 1 0 25.649650000000001 15.389790000000000 0.000000000000000 
94 1 0 28.214614999999998 17.954754999999999 0.000000000000000 
95 1 0 28.214614999999998 15.389790000000000 2.564965000000000 
96 1 0 25.649650000000001 17.954754999999999 2.564965000000000 
115 1 0 23.084685000000000 20.519720000000000 2.564965000000000 
117 1 0 25.649650000000001 20.519720000000000 0.000000000000000 
119 1 0 28.214614999999998 20.519720000000000 2.564965000000000 
234 1 0 23.084685000000000 17.954754999999999 5.129930000000000 
237 1 0 25.649650000000001 15.389790000000000 5.129930000000000 
238 1 0 28.214614999999998 17.954754999999999 5.129930000000000 
261 1 0 25.649650000000001 20.519720000000000 5.129930000000000 
98 1 0 2.564965000000000 23.084685000000000 0.000000000000000 
100 1 0 0.000000000000000 23.084685000000000 2.564965000000000 
104 1 0 5.129930000000000 23.084685000000000 2.564965000000000 
121 1 0 0.000000000000000 25.649650000000001 0.000000000000000 
122 1 0 2.564965000000000 28.214614999999998 0.000000000000000 
123 1 0 2.564965000000000 25.649650000000001 2.564965000000000 
124 1 0 0.000000000000000 28.214614999999998 2.564965000000000 
125 1 0 5.129930000000000 25.649650000000001 0.000000000000000 
128 1 0 5.129930000000000 28.214614999999998 2.564965000000000 
242 1 0 2.564965000000000 23.084685000000000 5.129930000000000 
265 1 0 0.000000000000000 25.649650000000001 5.129930000000000 
266 1 0 2.564965000000000 28.214614999999998 5.129930000000000 
269 1 0 5.129930000000000 25.649650000000001 5.129930000000000 
102 1 0 7.694895000000000 23.084685000000000 0.000000000000000 
106 1 0 12.824825000000001 23.084685000000000 0.000000000000000 
108 1 0 10.259860000000000 23.084685000000000 2.564965000000000 
126 1 0 7.694895000000000 28.214614999999998 0.000000000000000 
127 1 0 7.694895000000000 25.649650000000001 2.564965000000000 
129 1 0 10.259860000000000 25.649650000000001 0.000000000000000 
130 1 0 12.824825000000001 28.214614999999998 0.000000000000000 
131 1 0 12.824825000000001 25.649650000000001 2.564965000000000 
132 1 0 10.259860000000000 28.214614999999998 2.564965000000000 
246 1 0 7.694895000000000 23.084685000000000 5.129930000000000 
250 1 0 12.824825000000001 23.084685000000000 5.129930000000000 
270 1 0 7.694895000000000 28.214614999999998 5.129930000000000 
273 1 0 10.259860000000000 25.649650000000001 5.129930000000000 
274 1 0 12.824825000000001 28.214614999999998 5.129930000000000 
110 2 0 17.954754999999999 23.084685000000000 0.000000000000000 
112 1 0 15.389790000000000 23.084685000000000 2.564965000000000 
116 2 0 20.519720000000000 23.084685000000000 2.564965000000000 
133 1 0 15.389790000000000 25.649650000000001 0.000000000000000 
134 1 0 17.954754999999999 28.214614999999998 0.000000000000000 
135 1 0 17.954754999999999 25.649650000000001 2.564965000000000 
136 1 0 15.389790000000000 28.214614999999998 2.564965000000000 
137 1 0 20.519720000000000 25.649650000000001 0.000000000000000 
140 2 0 20.519720000000000 28.214614999999998 2.564965000000000 
254 1 0 17.954754999999999 23.084685000000000 5.129930000000000 
277 1 0 15.389790000000000 25.649650000000001 5.129930000000000 
278 1 0 17.954754999999999 28.214614999999998 5.129930000000000 
281 1 0 20.519720000000000 25.649650000000001 5.129930000000000 
114 1 0 23.084685000000000 23.084685000000000 0.000000000000000 
118 1 0 28.214614999999998 23.084685000000000 0.000000000000000 
120 1 0 25.649650000000001 23.084685000000000 2.564965000000000 
138 1 0 23.084685000000000 28.214614999999998 0.000000000000000 
139 1 0 23.084685000000000 25.649650000000001 2.564965000000000 
141 1 0 25.649650000000001 25.649650000000001 0.000000000000000 
142 1 0 28.214614999999998 28.214614999999998 0.000000000000000 
143 1 0 28.214614999999998 25.649650000000001 2.564965000000000 
144 1 0 25.649650000000001 28.214614999999998 2.564965000000000 
258 1 0 23.084685000000000 23.084685000000000 5.129930000000000 
262 1 0 28.214614999999998 23.084685000000000 5.129930000000000 
282 1 0 23.084685000000000 28.214614999999998 5.129930000000000 
285 1 0 25.649650000000001 25.649650000000001 5.129930000000000 
286 2 0 28.214614999999998 28.214614999999998 5.129930000000000 
147 1 0 2.564965000000000 0.000000000000000 7.694895000000000 
148 1 0 0.000000000000000 2.564965000000000 7.694895000000000 
152 1 0 5.129930000000000 2.564965000000000 7.694895000000000 
171 1 0 2.564965000000000 5.129930000000000 7.694895000000000 
289 1 0 0.000000000000000 0.000000000000000 10.259860000000000 
290 1 0 2.564965000000000 2.564965000000000 10.259860000000000 
291 1 0 2.564965000000000 0.000000000000000 12.824825000000001 
292 1 0 0.000000000000000 2.564965000000000 12.824825000000001 
293 1 0 5.129930000000000 0.000000000000000 10.259860000000000 
296 1 0 5.129930000000000 2.564965000000000 12.824825000000001 
313 1 0 0.000000000000000 5.129930000000000 10.259860000000000 
315 1 0 2.564965000000000 5.129930000000000 12.824825000000001 
317 1 0 5.129930000000000 5.129930000000000 10.259860000000000 
151 1 0 7.694895000000000 0.000000000000000 7.694895000000000 
155 1 0 12.824825000000001 0.000000000000000 7.694895000000000 
156 1 0 10.259860000000000 2.564965000000000 7.694895000000000 
175 1 0 7.694895000000000 5.129930000000000 7.694895000000000 
179 2 0 12.824825000000001 5.129930000000000 7.694895000000000 
294 2 0 7.694895000000000 2.564965000000000 10.259860000000000 
295 1 0 7.694895000000000 0.000000000000000 12.824825000000001 
297 1 0 10.259860000000000 0.000000000000000 10.259860000000000 
298 1 0 12.824825000000001 2.564965000000000 10.259860000000000 
299 1 0 12.824825000000001 0.000000000000000 12.824825000000001 
300 1 0 10.259860000000000 2.564965000000000 12.824825000000001 
319 1 0 7.694895000000000 5.129930000000000 12.824825000000001 
321 1 0 10.259860000000000 5.129930000000000 10.259860000000000 
323 1 0 12.824825000000001 5.129930000000000 12.824825000000001 
159 1 0 17.954754999999999 0.000000000000000 7.694895000000000 
160 1 0 15.389790000000000 2.564965000000000 7.694895000000000 
164 1 0 20.519720000000000 2.564965000000000 7.694895000000000 
183 1 0 17.954754999999999 5.129930000000000 7.694895000000000 
301 1 0 15.389790000000000 0.000000000000000 10.259860000000000 
302 1 0 17.954754999999999 2.564965000000000 10.259860000000000 
303 1 0 17.954754999999999 0.000000000000000 12.824825000000001 
304 1 0 15.389790000000000 2.564965000000000 12.824825000000001 
305 1 0 20.519720000000000 0.000000000000000 10.259860000000000 
308 1 0 20.519720000000000 2.564965000000000 12.824825000000001 
325 1 0 15.389790000000000 5.129930000000000 10.259860000000000 
327 1 0 17.954754999999999 5.129930000000000 12.824825000000001 
329 1 0 20.519720000000000 5.129930000000000 10.259860000000000 
163 1 0 23.084685000000000 0.000000000000000 7.694895000000000 
167 2 0 28.214614999999998 0.000000000000000 7.694895000000000 
168 1 0 25.649650000000001 2.564965000000000 7.694895000000000 
187 1 0 23.084685000000000 5.129930000000000 7.694895000000000 
191 1 0 28.214614999999998 5.129930000000000 7.694895000000000 
306 1 0 23.084685000000000 2.564965000000000 10.259860000000000 
307 1 0 23.084685000000000 0.000000000000000 12.824825000000001 
309 1 0 25.649650000000001 0.000000000000000 10.259860000000000 
310 1 0 28.214614999999998 2.564965000000000 10.259860000000000 
311 2 0 28.214614999999998 0.000000000000000 12.824825000000001 
312 2 0 25.649650000000001 2.564965000000000 12.824825000000001 
331 1 0 23.084685000000000 5.129930000000000 12.824825000000001 
333 1 0 25.649650000000001 5.129930000000000 10.259860000000000 
335 1 0 28.214614999999998 5.129930000000000 12.824825000000001 
172 1 0 0.000000000000000 7.694895000000000 7.694895000000000 
176 1 0 5.129930000000000 7.694895000000000 7.694895000000000 
195 2 0 2.564965000000000 10.259860000000000 7.694895000000000 
196 1 0 0.000000000000000 12.824825000000001 7.694895000000000 
200 1 0 5.129930000000000 12.824825000000001 7.694895000000000 
314 2 0 2.564965000000000 7.694895000000000 10.259860000000000 
316 2 0 0.000000000000000 7.694895000000000 12.824825000000001 
320 1 0 5.129930000000000 7.694895000000000 12.824825000000001 
337 2 0 0.000000000000000 10.259860000000000 10.259860000000000 
338 1 0 2.564965000000000 12.824825000000001 10.259860000000000 
339 2 0 2.564965000000000 10.259860000000000 12.824825000000001 
340 1 0 0.000000000000000 12.824825000000001 12.824825000000001 
341 1 0 5.129930000000000 10.259860000000000 10.259860000000000 
344 1 0 5.129930000000000 12.824825000000001 12.824825000000001 
180 1 0 10.259860000000000 7.694895000000000 7.694895000000000 
199 1 0 7.694895000000000 10.259860000000000 7.694895000000000 
203 1 0 12.824825000000001 10.259860000000000 7.694895000000000 
204 1 0 10.259860000000000 12.824825000000001 7.694895000000000 
318 1 0 7.694895000000000 7.694895000000000 10.259860000000000 
322 2 0 12.824825000000001 7.694895000000000 10.259860000000000 
324 1 0 10.259860000000000 7.694895000000000 12.824825000000001 
342 1 0 7.694895000000000 12.824825000000001 10.259860000000000 
343 1 0 7.694895000000000 10.259860000000000 12.824825000000001 
345 1 0 10.259860000000000 10.259860000000000 10.259860000000000 
346 1 0 12.824825000000001 12.824825000000001 10.259860000000000 
347 1 0 12.824825000000001 10.259860000000000 12.824825000000001 
348 1 0 10.259860000000000 12.824825000000001 12.824825000000001 
184 2 0 15.389790000000000 7.694895000000000 7.694895000000000 
188 1 0 20.519720000000000 7.694895000000000 7.694895000000000 
207 1 0 17.954754999999999 10.259860000000000 7.694895000000000 
208 1 0 15.389790000000000 12.824825000000001 7.694895000000000 
212 1 0 20.519720000000000 12.824825000000001 7.694895000000000 
326 1 0 17.954754999999999 7.694895000000000 10.259860000000000 
328 1 0 15.389790000000000 7.694895000000000 12.824825000000001 
332 1 0 20.519720000000000 7.694895000000000 12.824825000000001 
349 1 0 15.389790000000000 10.259860000000000 10.259860000000000 
350 2 0 17.954754999999999 12.824825000000001 10.259860000000000 
351 2 0 17.954754999999999 10.259860000000000 12.824825000000001 
352 1 0 15.389790000000000 12.824825000000001 12.824825000000001 
353 1 0 20.519720000000000 10.259860000000000 10.259860000000000 
356 1 0 20.519720000000000 12.824825000000001 12.824825000000001 
192 1 0 25.649650000000001 7.694895000000000 7.694895000000000 
211 1 0 23.084685000000000 10.259860000000000 7.694895000000000 
215 1 0 28.214614999999998 10.259860000000000 7.694895000000000 
216 1 0 25.649650000000001 12.824825000000001 7.694895000000000 
330 1 0 23.084685000000000 7.694895000000000 10.259860000000000 
334 2 0 28.214614999999998 7.694895000000000 10.259860000000000 
336 1 0 25.649650000000001 7.694895000000000 12.824825000000001 
354 1 0 23.084685000000000 12.824825000000001 10.259860000000000 
355 1 0 23.084685000000000 10.259860000000000 12.824825000000001 
357 2 0 25.649650000000001 10.259860000000000 10.259860000000000 
358 1 0 28.214614999999998 12.824825000000001 10.259860000000000 
359 1 0 28.214614999999998 10.259860000000000 12.824825000000001 
360 1 0 25.649650000000001 12.824825000000001 12.824825000000001 
219 1 0 2.564965000000000 15.389790000000000 7.694895000000000 
220 1 0 0.000000000000000 17.954754999999999 7.694895000000000 
224 1 0 5.129930000000000 17.954754999999999 7.694895000000000 
243 1 0 2.564965000000000 20.519720000000000 7.694895000000000 
361 1 0 0.000000000000000 15.389790000000000 10.259860000000000 
362 1 0 2.564965000000000 17.954754999999999 10.259860000000000 
363 1 0 2.564965000000000 15.389790000000000 12.824825000000001 
364 1 0 0.000000000000000 17.954754999999999 12.824825000000001 
365 1 0 5.129930000000000 15.389790000000000 10.259860000000000 
368 1 0 5.129930000000000 17.954754999999999 12.824825000000001 
385 1 0 0.000000000000000 20.519720000000000 10.259860000000000 
387 2 0 2.564965000000000 20.519720000000000 12.824825000000001 
389 1 0 5.129930000000000 20.519720000000000 10.259860000000000 
223 1 0 7.694895000000000 15.389790000000000 7.694895000000000 
227 1 0 12.824825000000001 15.389790000000000 7.694895000000000 
228 1 0 10.259860000000000 17.954754999999999 7.694895000000000 
247 1 0 7.694895000000000 20.519720000000000 7.694895000000000 
251 2 0 12.824825000000001 20.519720000000000 7.694895000000000 
366 1 0 7.694895000000000 17.954754999999999 10.259860000000000 
367 1 0 7.694895000000000 15.389790000000000 12.824825000000001 
369 1 0 10.259860000000000 15.389790000000000 10.259860000000000 
370 1 0 12.824825000000001 17.954754999999999 10.259860000000000 
371 1 0 12.824825000000001 15.389790000000000 12.824825000000001 
372 1 0 10.259860000000000 17.954754999999999 12.824825000000001 
391 2 0 7.694895000000000 20.519720000000000 12.824825000000001 
393 1 0 10.259860000000000 20.519720000000000 10.259860000000000 
395 1 0 12.824825000000001 20.519720000000000 12.824825000000001 
231 1 0 17.954754999999999 15.389790000000000 7.694895000000000 
232 1 0 15.389790000000000 17.954754999999999 7.694895000000000 
236 2 0 20.519720000000000 17.954754999999999 7.694895000000000 
255 1 0 17.954754999999999 20.519720000000000 7.694895000000000 
373 1 0 15.389790000000000 15.389790000000000 10.259860000000000 
374 1 0 17.954754999999999 17.954754999999999 10.259860000000000 
375 1 0 17.954754999999999 15.389790000000000 12.824825000000001 
376 1 0 15.389790000000000 17.954754999999999 12.824825000000001 
377 1 0 20.519720000000000 15.389790000000000 10.259860000000000 
380 1 0 20.519720000000000 17.954754999999999 12.824825000000001 
397 1 0 15.389790000000000 20.519720000000000 10.259860000000000 
399 2 0 17.954754999999999 20.519720000000000 12.824825000000001 
401 1 0 20.519720000000000 20.519720000000000 10.259860000000000 
235 1 0 23.084685000000000 15.389790000000000 7.694895000000000 
239 1 0 28.214614999999998 15.389790000000000 7.694895000000000 
240 1 0 25.649650000000001 17.954754999999999 7.694895000000000 
259 1 0 23.084685000000000 20.519720000000000 7.694895000000000 
263 1 0 28.214614999999998 20.519720000000000 7.694895000000000 
378 2 0 23.084685000000000 17.954754999999999 10.259860000000000 
379 1 0 23.084685000000000 15.389790000000000 12.824825000000001 
381 1 0 25.649650000000001 15.389790000000000 10.259860000000000 
382 1 0 28.214614999999998 17.954754999999999 10.259860000000000 
383 1 0 28.214614999999998 15.389790000000000 12.824825000000001 
384 1 0 25.649650000000001 17.954754999999999 12.824825000000001 
403 1 0 23.084685000000000 20.519720000000000 12.824825000000001 
405 1 0 25.649650000000001 20.519720000000000 10.259860000000000 
407 1 0 28.214614999999998 20.519720000000000 12.824825000000001 
244 1 0 0.000000000000000 23.084685000000000 7.694895000000000 
248 1 0 5.129930000000000 23.084685000000000 7.694895000000000 
267 1 0 2.564965000000000 25.649650000000001 7.694895000000000 
268 1 0 0.000000000000000 28.214614999999998 7.694895000000000 
272 1 0 5.129930000000000 28.214614999999998 7.694895000000000 
386 1 0 2.564965000000000 23.084685000000000 10.259860000000000 
388 1 0 0.000000000000000 23.084685000000000 12.824825000000001 
392 1 0 5.129930000000000 23.084685000000000 12.824825000000001 
409 1 0 0.000000000000000 25.649650000000001 10.259860000000000 
410 1 0 2.564965000000000 28.214614999999998 10.259860000000000 
411 1 0 2.564965000000000 25.649650000000001 12.824825000000001 
412 1 0 0.000000000000000 28.214614999999998 12.824825000000001 
413 1 0 5.129930000000000 25.649650000000001 10.259860000000000 
416 1 0 5.129930000000000 28.214614999999998 12.824825000000001 
252 1 0 10.259860000000000 23.084685000000000 7.694895000000000 
271 1 0 7.694895000000000 25.649650000000001 7.694895000000000 
275 1 0 12.824825000000001 25.649650000000001 7.694895000000000 
276 1 0 10.259860000000000 28.214614999999998 7.694895000000000 
390 1 0 7.694895000000000 23.084685000000000 10.259860000000000 
394 1 0 12.824825000000001 23.084685000000000 10.259860000000000 
396 2 0 10.259860000000000 23.084685000000000 12.824825000000001 
414 1 0 7.694895000000000 28.214614999999998 10.259860000000000 
415 1 0 7.694895000000000 25.649650000000001 12.824825000000001 
417 1 0 10.259860000000000 25.649650000000001 10.259860000000000 
418 1 0 12.824825000000001 28.214614999999998 10.259860000000000 
419 2 0 12.824825000000001 25.649650000000001 12.824825000000001 
420 1 0 10.259860000000000 28.214614999999998 12.824825000000001 
256 1 0 15.389790000000000 23.084685000000000 7.694895000000000 
260 1 0 20.519720000000000 23.084685000000000 7.694895000000000 
279 1 0 17.954754999999999 25.649650000000001 7.694895000000000 
280 1 0 15.389790000000000 28.214614999999998 7.694895000000000 
284 1 0 20.519720000000000 28.214614999999998 7.694895000000000 
398 1 0 17.954754999999999 23.084685000000000 10.259860000000000 
400 1 0 15.389790000000000 23.084685000000000 12.824825000000001 
404 1 0 20.519720000000000 23.084685000000000 12.824825000000001 
421 1 0 15.389790000000000 25.649650000000001 10.259860000000000 
422 1 0 17.954754999999999 28.214614999999998 10.259860000000000 
423 1 0 17.954754999999999 25.649650000000001 12.824825000000001 
424 1 0 15.389790000000000 28.214614999999998 12.824825000000001 
425 1 0 20.519720000000000 25.649650000000001 10.259860000000000 
428 1 0 20.519720000000000 28.214614999999998 12.824825000000001 
264 1 0 25.649650000000001 23.084685000000000 7.694895000000000 
283 1 0 23.084685000000000 25.649650000000001 7.694895000000000 
287 1 0 28.214614999999998 25.649650000000001 7.694895000000000 
288 1 0 25.649650000000001 28.214614999999998 7.694895000000000 
402 1 0 23.084685000000000 23.084685000000000 10.259860000000000 
406 1 0 28.214614999999998 23.084685000000000 10.259860000000000 
408 1 0 25.649650000000001 23.084685000000000 12.824825000000001 
426 1 0 23.084685000000000 28.214614999999998 10.259860000000000 
427 1 0 23.084685000000000 25.649650000000001 12.824825000000001 
429 2 0 25.649650000000001 25.649650000000001 10.259860000000000 
430 1 0 28.214614999999998 28.214614999999998 10.259860000000000 
431 1 0 28.214614999999998 25.649650000000001 12.824825000000001 
432 1 0 25.649650000000001 28.214614999999998 12.824825000000001 
433 1 0 0.000000000000000 0.000000000000000 15.389790000000000 
434 1 0 2.564965000000000 2.564965000000000 15.389790000000000 
435 1 0 2.564965000000000 0.000000000000000 17.954754999999999 
436 1 0 0.000000000000000 2.564965000000000 17.954754999999999 
437 2 0 5.129930000000000 0.000000000000000 15.389790000000000 
440 1 0 5.129930000000000 2.564965000000000 17.954754999999999 
457 1 0 0.000000000000000 5.129930000000000 15.389790000000000 
459 1 0 2.564965000000000 5.129930000000000 17.954754999999999 
461 1 0 5.129930000000000 5.129930000000000 15.389790000000000 
577 1 0 0.000000000000000 0.000000000000000 20.519720000000000 
578 1 0 2.564965000000000 2.564965000000000 20.519720000000000 
581 1 0 5.129930000000000 0.000000000000000 20.519720000000000 
601 1 0 0.000000000000000 5.129930000000000 20.519720000000000 
605 1 0 5.129930000000000 5.129930000000000 20.519720000000000 
438 1 0 7.694895000000000 2.564965000000000 15.389790000000000 
439 1 0 7.694895000000000 0.000000000000000 17.954754999999999 
441 2 0 10.259860000000000 0.000000000000000 15.389790000000000 
442 1 0 12.824825000000001 2.564965000000000 15.389790000000000 
443 1 0 12.824825000000001 0.000000000000000 17.954754999999999 
444 1 0 10.259860000000000 2.564965000000000 17.954754999999999 
463 2 0 7.694895000000000 5.129930000000000 17.954754999999999 
465 1 0 10.259860000000000 5.129930000000000 15.389790000000000 
467 1 0 12.824825000000001 5.129930000000000 17.954754999999999 
582 1 0 7.694895000000000 2.564965000000000 20.519720000000000 
585 1 0 10.259860000000000 0.000000000000000 20.519720000000000 
586 1 0 12.824825000000001 2.564965000000000 20.519720000000000 
609 1 0 10.259860000000000 5.129930000000000 20.519720000000000 
445 1 0 15.389790000000000 0.000000000000000 15.389790000000000 
446 1 0 17.954754999999999 2.564965000000000 15.389790000000000 
447 1 0 17.954754999999999 0.000000000000000 17.954754999999999 